LAMMPS data file

5206 atoms
1 atom types 
15612 bonds
1 bond types
10408 angles
1 angle types 
15612 dihedrals
1 dihedral types

-40.0 40.0 xlo xhi
-40.0 40.0 ylo yhi
-40.0 40.0 zlo zhi

Masses

1 1

Atoms

1 1001 1 0.0879174033932362 0.571624580309563 34.9832684526015
2 1001 1 -1.62251596704764 -3.51610719947782 34.2197923156286
3 1001 1 -1.73951293310424 -4.45157685283788 33.7839452219446
4 1001 1 -0.887338658827268 -4.15999833629501 34.0502585570092
5 1001 1 -0.771787818833977 -3.19150728629634 34.4455684636317
6 1001 1 -0.112330829945711 -4.7673715834492 33.7897491440738
7 1001 1 0.791171404693959 -3.41000707855445 34.3672862685887
8 1001 1 -0.0522792775977078 -3.81234677157301 34.2446427631695
9 1001 1 1.45529137518574 -3.93292917132286 34.0782357056179
10 1001 1 -3.2278620813983 -3.17710324276734 33.9155516431019
11 1001 1 -3.94726131754147 -2.54694724179797 33.8279294467297
12 1001 1 -3.29199901420996 -4.08155553678937 33.5149162540625
13 1001 1 -2.38009812683204 -2.86619305112302 34.2800973715318
14 1001 1 -2.46399250874581 -3.80754704264578 33.9124334671236
15 1001 1 -1.51585543146597 -2.54775807604547 34.5504579606196
16 1001 1 -0.622233475192116 -2.21553788023379 34.7316163440714
17 1001 1 0.102169828440757 -2.83070858552641 34.5904533603971
18 1001 1 1.78795778263473 -3.10075844755121 34.3374868652674
19 1001 1 1.07883401165416 -2.52012072806707 34.6169253327751
20 1001 1 2.08721969007884 -2.25864662354759 34.5153650252459
21 1001 1 2.73589481505642 -2.98039820825483 34.1450668325988
22 1001 1 3.04976553332227 -2.11784036336298 34.2851391388808
23 1001 1 -3.11863611475775 -2.21591279722292 34.2392628188519
24 1001 1 -3.88779991447168 -1.61497076685695 34.0706681932337
25 1001 1 -2.26219495488313 -1.88947120868028 34.5557578072221
26 1001 1 -1.36680232121475 -1.5715285668252 34.7807097561828
27 1001 1 -0.398927829309511 -1.28206030118815 34.909455744925
28 1001 1 0.347847114144908 -1.91136810431563 34.8094756854208
29 1001 1 1.34925210391808 -1.63394069427731 34.7729163140582
30 1001 1 2.34364538776682 -1.39220289073915 34.6212904999888
31 1001 1 3.26836249985781 -1.18430751659005 34.3763188046982
32 1001 1 -3.80701197841754 -0.684569098866127 34.2216128635855
33 1001 1 -4.71092406973981 -0.185615788979511 33.8188933078752
34 1001 1 -4.66984526700452 -1.07212646974004 33.7774267569174
35 1001 1 -3.02349669323586 -1.24152884151744 34.4507779536813
36 1001 1 -2.13024229025287 -0.914050157139058 34.7276259518894
37 1001 1 -1.15255736635908 -0.63728485027663 34.9129012382899
38 1001 1 -0.158601882930449 -0.358226204244659 34.9923296599161
39 1001 1 0.597628067171494 -1.00035115095894 34.9318816197739
40 1001 1 1.5937300163929 -0.73309092840421 34.8449345367509
41 1001 1 2.55578156173722 -0.476346876337485 34.6561487927911
42 1001 1 4.14995621578322 -0.929639570002432 34.0506223504718
43 1001 1 3.47023187681277 -0.23420115133852 34.3756479873775
44 1001 1 4.34047334659798 0.0365327302066172 34.0088341294475
45 1001 1 -3.92967313595196 0.171483146270016 34.1939325164993
46 1001 1 -5.48944476304679 -0.541705422161812 33.3410246828538
47 1001 1 -2.90109489352013 -0.262892666063764 34.5663279831213
48 1001 1 -1.89424001960779 0.00752283790513329 34.8189570378101
49 1001 1 -0.901387354525284 0.295371598612172 34.9549176288911
50 1001 1 0.837756956307654 -0.0813563332825903 34.9645209500398
51 1001 1 1.81471803859134 0.192832714424185 34.8320775646677
52 1001 1 2.75888312698431 0.460776524733189 34.6008533834501
53 1001 1 3.65629730401911 0.724833631587221 34.2793450061669
54 1001 1 5.17322682952159 0.336489028817346 33.5512946585755
55 1001 1 -3.9244577485797 1.17916031632637 34.1218622078632
56 1001 1 -4.69705846983636 0.75885520620039 33.7955628849718
57 1001 1 -3.22542534823693 0.574511245054178 34.4481069637032
58 1001 1 -2.41174496604538 0.743413330015344 34.6763092178552
59 1001 1 -1.53093820404469 1.00359282658344 34.8310308861166
60 1001 1 -0.606319044393751 1.26306698615688 34.9013725036488
61 1001 1 0.341462287655205 1.51606948174066 34.8785159192068
62 1001 1 1.06957252447924 0.85085792468823 34.9061693269548
63 1001 1 2.02930167006081 1.13045019203848 34.7264666879379
64 1001 1 2.95285043111278 1.4093280701975 34.4495823842677
65 1001 1 4.50460594665082 1.0032765907947 33.8714204496816
66 1001 1 -4.59493308868872 1.74443268505298 33.7088286672251
67 1001 1 -3.06077325687811 1.5185373039549 34.3981841294378
68 1001 1 -3.74799540890713 2.13551223135941 34.0217663951179
69 1001 1 -2.19368735924933 1.73498930612861 34.6009211465378
70 1001 1 -1.29981628593786 1.98076590345146 34.7153066041855
71 1001 1 -0.381960022143049 2.2159469876292 34.7439122137988
72 1001 1 0.553495262335049 2.44319895558301 34.6811448552634
73 1001 1 1.29708150499869 1.78972932571609 34.7526708289919
74 1001 1 2.23205636854535 2.07216564729376 34.524924896596
75 1001 1 3.82818016470854 1.68809734455187 34.0827035164349
76 1001 1 3.12731420574728 2.35967411762748 34.2006513185718
77 1001 1 -2.87494377227457 2.45779124745641 34.2571110862883
78 1001 1 -3.54978128801009 3.08457507590907 33.8252249392611
79 1001 1 -1.99615869987274 2.69499597938385 34.4208537175262
80 1001 1 -1.09917119504176 2.9272663573092 34.4985826790637
81 1001 1 -0.18686092954738 3.13916349639682 34.4926749367715
82 1001 1 0.739469114965478 3.3369350400853 34.3977763268183
83 1001 1 1.49693569666301 2.71775329218925 34.5064790545787
84 1001 1 2.40728362732287 3.00713587172138 34.2283402042705
85 1001 1 3.26291037534108 3.30597581681752 33.8557372426982
86 1001 1 -2.6791539333337 3.38831123513356 34.0189590716648
87 1001 1 -1.79821329487912 3.626466256067 34.1441407429119
88 1001 1 -0.906479574911869 3.8423991362281 34.1877311890953
89 1001 1 -1.58104910193658 4.52956636355555 33.7740214991019
90 1001 1 -0.00499478098647405 4.02721493750704 34.1532323116148
91 1001 1 0.906294312209228 4.18759851503798 34.0356411128006
92 1001 1 1.671436376157 3.62738503508652 34.1677983313172
93 1001 1 1.07320857935974 4.99209943395579 33.5981007043985
94 1001 1 2.53823263569865 3.93501827954511 33.8359013153879
95 1001 1 -0.69655831358094 4.72433401504663 33.7861038521962
96 1001 1 -0.351430045367842 5.56567463209148 33.3005967827119
97 1001 1 0.188783365024885 4.87885423457465 33.7270441355824
98 1001 1 -0.167258876067161 -6.37547532751847 32.7023025167432
99 1001 1 -3.5352909959964 -4.93452415397735 32.9468427444836
100 1001 1 -3.37887190437192 -5.69187252881516 32.4957307586915
101 1001 1 -2.62561212635843 -5.4795062139107 32.9423754504126
102 1001 1 -1.77551032973714 -5.28940575695693 33.2987889341438
103 1001 1 -1.87934629542518 -6.07741295510869 32.7157797368224
104 1001 1 -0.917488972548629 -5.06218497454781 33.5751171328251
105 1001 1 -0.971487896418896 -5.86598154546187 33.0403117420766
106 1001 1 -0.0552012515134958 -5.63188846960582 33.2631052016801
107 1001 1 0.743926873362632 -5.26761654523498 33.4675217231198
108 1001 1 0.667104536513095 -4.39041892681368 33.9598742521895
109 1001 1 1.56422320247773 -4.71845656407755 33.6769534384864
110 1001 1 1.6359110156352 -5.47547828866247 33.2062817512129
111 1001 1 2.4256562053672 -4.6502934247867 33.514169417834
112 1001 1 2.5611826657413 -5.39519086077917 33.0207480877634
113 1001 1 3.46774550893457 -5.32243090365625 32.723122766783
114 1001 1 -4.07209089995634 -3.46109298731182 33.4521625900158
115 1001 1 -4.90140807703048 -3.87469945106971 32.8078823592791
116 1001 1 -4.55288558035022 -4.78564851404989 32.5079252129442
117 1001 1 -4.10400180794303 -4.2559519487164 33.0649988100184
118 1001 1 -2.62332171200553 -4.70252819771543 33.4264195659937
119 1001 1 2.30914593266349 -3.86840058585763 33.9276799080574
120 1001 1 3.15749240462091 -3.75478565500813 33.7138944314498
121 1001 1 3.27968541199512 -4.59964943406042 33.251486753153
122 1001 1 3.67687176656539 -2.87900661267537 33.8426262056017
123 1001 1 3.95176895085922 -3.87422109188074 33.329109677225
124 1001 1 -5.417046138073 -3.16426377171086 32.7873753828724
125 1001 1 -6.14584123402968 -2.77047774913846 32.3860170799098
126 1001 1 -5.82391504153813 -3.72292815558329 32.2264770188797
127 1001 1 -4.72879810588119 -2.91991034647102 33.3134072990018
128 1001 1 4.44842338683734 -3.21942080865622 33.3574523860999
129 1001 1 5.26889222097976 -3.08929565648748 32.9180276679843
130 1001 1 4.60900152441629 -2.41655900077962 33.539173274553
131 1001 1 5.44255014530585 -2.1879159567886 33.0988768375907
132 1001 1 -5.47945899416334 -2.29307891166477 33.0447173270868
133 1001 1 -6.21368471853298 -1.86526966338941 32.6099300503421
134 1001 1 -4.70979260618002 -1.99075671051762 33.5938865322997
135 1001 1 3.92953067005421 -1.89995934455768 33.9971699558507
136 1001 1 4.8206148290628 -1.52613190432604 33.6274407196954
137 1001 1 5.64746196776373 -1.25961815599846 33.155959401915
138 1001 1 -5.4760256740406 -1.42107628234161 33.2458369039992
139 1001 1 -6.22999298826971 -0.964012886747159 32.7626031778775
140 1001 1 5.01230859216166 -0.602470388892563 33.6321452488379
141 1001 1 5.82178734217192 -0.333706801367077 33.1237657971064
142 1001 1 -6.86975411056995 0.45079053907076 32.2528206985691
143 1001 1 -6.22162859510684 -0.0461002366955813 32.828751807458
144 1001 1 5.94372849870859 0.61024032359462 33.0187182577316
145 1001 1 6.6505504192919 0.883221368456747 32.4155411207783
146 1001 1 -5.47415055140806 0.373374665789969 33.3602878059327
147 1001 1 -6.15270453463073 0.890126647414306 32.8327547082668
148 1001 1 5.29982120013408 1.29424071935064 33.3807506005591
149 1001 1 6.03265929183984 1.56603918597227 32.820146597527
150 1001 1 -5.38523123774172 1.31933020462159 33.3221872232019
151 1001 1 -6.00916779103766 1.83583568799854 32.779444557735
152 1001 1 -4.39507308433025 2.70324631168787 33.5659758309595
153 1001 1 3.96889520407972 2.64745745806356 33.788571037669
154 1001 1 4.65020783397605 1.97374114960177 33.6301827123546
155 1001 1 5.42110133365125 2.25949978448408 33.0936063815304
156 1001 1 -5.22178941864399 2.28154830368769 33.2175181022346
157 1001 1 -5.796830968356 2.7815071081272 32.658989542132
158 1001 1 -4.98903034340879 3.23299967631925 33.0409850349861
159 1001 1 4.05777396993558 3.5942788939512 33.4033189662042
160 1001 1 4.75870242697287 2.92860154550734 33.2932614737205
161 1001 1 5.52061354886701 3.18616056731173 32.7052808032754
162 1001 1 -5.52451712226525 3.71989362861878 32.4593737079239
163 1001 1 -4.17826271404554 3.66134775874105 33.3148541002702
164 1001 1 -4.7529938711125 4.19538773415237 32.7335578044946
165 1001 1 -3.33145666340614 4.01515982403966 33.5311213070941
166 1001 1 -2.45886576512662 4.29815907736948 33.6879197189195
167 1001 1 1.81080874400411 4.52511381501239 33.7318076257723
168 1001 1 2.52304235082118 4.88495306372964 33.3529409663666
169 1001 1 3.31299555577358 4.24992778509583 33.4239130988315
170 1001 1 5.60776815921469 4.05999333840577 32.2159221702922
171 1001 1 4.85154549436602 3.83155590711751 32.8601418695445
172 1001 1 -3.93344320002437 4.59023083857203 32.9660496480898
173 1001 1 -3.06687431309088 4.91278448460811 33.1522372261603
174 1001 1 -3.65197264776671 5.45977966561021 32.5401621015368
175 1001 1 -2.18340461767499 5.18269726081882 33.2687685013219
176 1001 1 -1.27999642233281 5.39761931164568 33.320303789873
177 1001 1 -0.0179953802399551 6.30905553654481 32.758585324596
178 1001 1 0.614311584953085 5.67188001402465 33.2129498193508
179 1001 1 1.6688403419201 5.49214443852245 33.1884942676184
180 1001 1 3.36796693339077 5.09704359833848 32.9168865637015
181 1001 1 4.12911870267785 4.47144306807572 32.9345271752843
182 1001 1 3.32727693967638 5.92297624856859 32.3381006703624
183 1001 1 -2.78143207698321 5.76678597842635 32.6816635021788
184 1001 1 -1.88484464485632 6.0090619393177 32.7677973011293
185 1001 1 -0.964526459116099 6.19123927433437 32.7934837269735
186 1001 1 -0.576346743088072 6.90446726935035 32.2108456128032
187 1001 1 0.965563791199025 6.29734932275761 32.7078668605996
188 1001 1 1.79970134006522 6.20637157310929 32.6316567188257
189 1001 1 2.57431245273206 5.67539880946453 32.8206723862269
190 1001 1 -1.3442051883925 -7.31718871007633 31.6822155883215
191 1001 1 -1.56187702768691 -7.92171505432289 30.8997552386355
192 1001 1 -0.702114488463532 -7.81128933059517 31.2041051209165
193 1001 1 -0.4815907599726 -7.08877737771667 32.0368630152822
194 1001 1 0.111837465207386 -7.52188313527299 31.5885439597012
195 1001 1 0.494826982037031 -6.85039226388953 32.2682463366656
196 1001 1 1.09960197553608 -7.36683360320533 31.6723902821803
197 1001 1 1.45610074927223 -6.74318714693124 32.2394283471902
198 1001 1 -2.71728884421431 -6.27812275282535 32.293947830276
199 1001 1 -3.65927755901837 -6.30502114916834 31.8451847111124
200 1001 1 -2.97598223107813 -6.89271160022815 31.6056189828932
201 1001 1 -2.0293300537546 -6.82387181000589 32.0225876624027
202 1001 1 -2.28114263659264 -7.44336088209439 31.2763766696417
203 1001 1 -1.1404206126622 -6.60111564134281 32.4246113364746
204 1001 1 0.851520321359275 -6.10594462838471 32.8735278706173
205 1001 1 2.42137693988492 -6.74225336047098 31.9770401421394
206 1001 1 1.9088859834632 -6.13057434372777 32.666312432811
207 1001 1 2.85887388409051 -6.0697720851027 32.4151772931589
208 1001 1 3.3638912374725 -6.64516304107042 31.6727943035441
209 1001 1 3.74712042252293 -5.98523373843491 32.0806936289532
210 1001 1 -5.04093575324111 -5.34186793904888 31.7862775614084
211 1001 1 -5.82890039615692 -5.04539190942267 31.3693077458289
212 1001 1 -5.37500934855017 -5.90124569420646 31.0236793664304
213 1001 1 -4.18109886982759 -5.50856224865097 32.2231778137974
214 1001 1 -4.52941258960592 -6.10223916712386 31.4997882772317
215 1001 1 4.18922617374339 -4.63377315079128 32.8088843149209
216 1001 1 4.34007213016113 -5.3768610850508 32.2286429727198
217 1001 1 4.8765432801944 -3.92852179832853 32.7965493560562
218 1001 1 4.99249628539129 -5.47796586634544 31.7131962908876
219 1001 1 5.0476547427665 -4.65218294545997 32.2717612897032
220 1001 1 -5.38485705304706 -4.50118363464432 32.1233974374829
221 1001 1 -6.24676279826094 -4.22790412482811 31.5652819099546
222 1001 1 6.0164433786059 -2.83007080736962 32.4694876971293
223 1001 1 5.73722371768681 -3.79029062994261 32.2607206405076
224 1001 1 -6.83263845999844 -2.35574818453579 31.9112697305672
225 1001 1 -7.00382615434015 -3.8208535852722 31.0289003143633
226 1001 1 -6.59942912240401 -3.31915758571776 31.7402429729054
227 1001 1 6.22561993456193 -1.88985940857339 32.5940915704992
228 1001 1 6.51526366626151 -3.34454301098087 31.8092221347599
229 1001 1 6.76006886344105 -2.41940965722135 31.9604652668006
230 1001 1 -6.89775540370601 -1.41527762660903 32.1005706474729
231 1001 1 -7.29530151712397 -2.87506718639659 31.2058603304168
232 1001 1 6.43200072104492 -0.980740059378964 32.5939220812111
233 1001 1 6.99980796429662 -1.56119268743023 31.9688953259393
234 1001 1 -7.52761991213628 -0.926943747954031 31.5173503348821
235 1001 1 -8.04797715394195 -1.36310310358005 30.7768637059826
236 1001 1 -7.46003472807819 -1.87777533963297 31.3892086685042
237 1001 1 -6.91267583253103 -0.485392191807497 32.2096773794973
238 1001 1 6.56556994936458 -0.052457330236952 32.5425912457482
239 1001 1 7.5130380276425 -2.1086174174668 31.2536488994234
240 1001 1 7.149319960933 -0.657752978275928 31.9609430598527
241 1001 1 7.67664069011607 -1.21896044225225 31.2915390271151
242 1001 1 -7.51996574995718 0.0136351571283306 31.5916666238125
243 1001 1 -8.08991520050325 -0.413821969518758 30.8636303144824
244 1001 1 7.24593122924203 0.259613096523371 31.8868884217966
245 1001 1 7.7886365853454 -0.286953180375083 31.2653765885424
246 1001 1 -7.43415711941161 0.960152325446236 31.6190300955243
247 1001 1 -8.03398655958517 0.553521929742569 30.9286435387239
248 1001 1 -6.75373382372425 1.39350260418506 32.2419179295578
249 1001 1 6.70344457503276 1.82133614441469 32.1935197607331
250 1001 1 7.29512197758433 1.17600735073612 31.7378307644739
251 1001 1 7.84673679690329 0.66316684374033 31.1635284199387
252 1001 1 -7.28113597240877 1.89623431511068 31.5870709209096
253 1001 1 -6.56740492692059 2.33015160237294 32.1721499958618
254 1001 1 -7.05986194517437 2.81022519622951 31.5008568957209
255 1001 1 6.14705581815802 2.51931692142627 32.4744159896805
256 1001 1 7.30985987220807 2.08384108326739 31.4979780678524
257 1001 1 6.82955915831704 2.74434926013275 31.7694767730444
258 1001 1 -6.312473050456 3.25469571788038 32.0398718228871
259 1001 1 -7.43369265137849 3.39745013340908 30.7617446422528
260 1001 1 6.23799730477746 3.41070023012083 32.0324009149606
261 1001 1 6.9615000313608 3.48308928402368 31.2773997909046
262 1001 1 -6.77773186227064 3.68948734507788 31.360047388398
263 1001 1 -6.00055721658423 4.1664160104451 31.8289421463889
264 1001 1 -6.44537607860194 4.52795838460762 31.1607543111526
265 1001 1 4.90432442621872 4.67631984036832 32.3538955792283
266 1001 1 5.66932782340112 4.84572337479995 31.6616684747096
267 1001 1 6.35287198455934 4.19984952729552 31.480927245137
268 1001 1 -5.28399608023893 4.68003583902808 32.0835582905777
269 1001 1 -5.78126639461185 5.11215803974863 31.3594774367971
270 1001 1 -4.50509152627397 5.10931924883895 32.3211439138171
271 1001 1 4.14092810344196 5.3048819840312 32.3966943084769
272 1001 1 4.92220982219343 5.44020476260332 31.7953050084914
273 1001 1 5.63741418254774 5.607545866833 31.0642504457859
274 1001 1 -5.06825536663924 5.55950170094766 31.5882367627631
275 1001 1 -4.21787719524164 5.93222074817165 31.8569975158112
276 1001 1 -3.35968205820669 6.28079122635937 32.0188557607865
277 1001 1 -3.94646829339946 6.70087892788072 31.2867913146585
278 1001 1 -2.46721806045907 6.55783627882498 32.1349670607878
279 1001 1 -1.54086334660978 6.76668983441558 32.1998462504486
280 1001 1 0.436024586413201 6.94374141039267 32.1829289374542
281 1001 1 1.45828884337481 6.9260373999554 32.0642424778198
282 1001 1 2.47815427855344 6.49672566646326 32.186893846435
283 1001 1 3.26909146074785 6.65963465536202 31.7054048694232
284 1001 1 4.11273307682511 6.05807395350748 31.8106765265809
285 1001 1 4.8608487401409 6.154764504403 31.204125520535
286 1001 1 -3.0601597058095 7.02455850847271 31.425817835782
287 1001 1 -2.14578935906071 7.2679154703297 31.5248086819841
288 1001 1 -1.20084450852158 7.43472674036721 31.5789778863902
289 1001 1 -1.77555246054549 7.90094228468358 30.8670828889958
290 1001 1 -0.237115589839553 7.51940812721994 31.5880511001973
291 1001 1 0.713265707434509 7.52761412431763 31.544189848047
292 1001 1 2.36064344300811 7.15903659085715 31.5708215780707
293 1001 1 1.60900991181366 7.54366445136441 31.3643045597786
294 1001 1 3.06461656164371 7.35055939535822 31.0479363311117
295 1001 1 -0.819518735180669 8.02839335403102 30.9053726415712
296 1001 1 0.15065602476645 8.07693896533376 30.8941070598021
297 1001 1 1.12806215633308 8.06797851937145 30.7995983651219
298 1001 1 -0.0876484724186773 -8.20797508152637 30.7115328960834
299 1001 1 -3.25708550468674 -7.40385795211579 30.8800024037517
300 1001 1 -3.43960612582583 -7.88941827918663 30.0917894113063
301 1001 1 -3.55982944381916 -8.25955926396265 29.3712069931588
302 1001 1 -2.56759893792161 -7.94860871271885 30.4979265943688
303 1001 1 -1.84100633257107 -8.36330048571258 30.1639187462027
304 1001 1 -0.899802703647791 -8.44133705155063 30.2852907622935
305 1001 1 0.684288858682714 -7.92536742024393 31.0597415643518
306 1001 1 1.57506166361089 -7.92780713006468 30.8880565661107
307 1001 1 2.00542257882781 -7.35474050764172 31.4719551546933
308 1001 1 2.91397435396928 -7.28733577283625 31.1970665002963
309 1001 1 2.45830113688869 -7.89461604282802 30.6242273586765
310 1001 1 3.35245713128865 -7.71445406266037 30.4081752512753
311 1001 1 -4.81093761132682 -6.6330701002999 30.7321377629398
312 1001 1 -5.88559280007696 -6.84474278103507 29.3022556205314
313 1001 1 -5.03601589697027 -7.08154693462342 29.9487753633568
314 1001 1 -3.94782478023197 -6.84074096140123 31.1334400931658
315 1001 1 -4.17605549946562 -7.34959709768103 30.3426692583543
316 1001 1 4.36959399991929 -6.26010585886204 31.4589340899951
317 1001 1 3.87205969609455 -7.02777040748195 30.9680586698972
318 1001 1 5.21777016153573 -6.09018089238174 30.9736694662336
319 1001 1 4.74018635361825 -6.77347798514037 30.6259017808405
320 1001 1 5.59960037448611 -6.48495768358062 30.1565442758355
321 1001 1 -6.13965221600734 -5.5570534969569 30.6057087900161
322 1001 1 -6.89273162752625 -5.18545213058762 30.0597910309959
323 1001 1 -5.66185727291932 -6.4003469059119 30.1941367440834
324 1001 1 5.75812191141289 -4.5998762487936 31.7590903199743
325 1001 1 5.70898264688139 -5.31938215688492 31.2539471959074
326 1001 1 6.41016429489077 -4.87550753400041 30.9278475914498
327 1001 1 -6.6234021691268 -4.71003037224059 30.8263453819232
328 1001 1 -7.34626674626211 -4.29266240282713 30.2540985754961
329 1001 1 6.47056132276314 -4.10404183259694 31.4256359725724
330 1001 1 7.07056469171241 -4.39910903034194 30.5367050600374
331 1001 1 -7.6752114042522 -3.37458976871934 30.4500829795916
332 1001 1 -8.21748053273327 -2.80479549403603 29.9604712154373
333 1001 1 -7.9860244060407 -3.85373369332277 29.6230149294707
334 1001 1 7.18488407928266 -3.62153745306937 30.9381845117921
335 1001 1 7.72045514972928 -3.761235722639 30.1232616435079
336 1001 1 7.85067715357574 -2.85058475242042 30.4991940487853
337 1001 1 -7.89327976533242 -2.34506691215907 30.6742343781942
338 1001 1 -8.45683080915369 -1.8004805778081 30.0239841285921
339 1001 1 7.21994608929114 -2.89600551462626 31.28376306544
340 1001 1 8.09902938604687 -1.87075293311754 30.55932846376
341 1001 1 -8.57517273609948 -0.84078171977139 30.0753944371594
342 1001 1 8.24744973479311 -0.879082187140011 30.586315849439
343 1001 1 -8.54823122109117 0.138747968491936 30.1873530576091
344 1001 1 8.3301423349642 0.105335343121735 30.5315258415203
345 1001 1 -8.45605627078282 1.1236071993369 30.2185016133736
346 1001 1 7.84235765660751 1.63165151703004 30.9862582934889
347 1001 1 -7.90926030585653 1.51506929186442 30.9286010220115
348 1001 1 -8.27987892104166 2.10244316530135 30.1984114333957
349 1001 1 7.57806630189387 2.72427080955617 30.9288602402402
350 1001 1 8.1691903078048 2.15805977002146 30.3485737572319
351 1001 1 -7.70875791516474 2.46591353311458 30.8731993309469
352 1001 1 -8.53823898110371 2.71482425219267 29.441660685043
353 1001 1 7.50350237584228 3.62128081653848 30.5302740879418
354 1001 1 8.02258755173431 3.12271770974724 30.0879126278424
355 1001 1 -8.02179956026152 3.06729132663047 30.1227536205173
356 1001 1 -7.08071813788063 4.30382979816171 30.5982708108107
357 1001 1 -7.13461422522341 4.94258247319788 29.9667192607169
358 1001 1 6.34697443855192 4.99470712672265 30.8965207215898
359 1001 1 7.00936345555984 5.00648713394074 30.0797674943464
360 1001 1 6.98790012973015 4.32948070761588 30.6942944166213
361 1001 1 -6.44412325588961 5.20928447584799 30.5979265764619
362 1001 1 -7.21816888424303 5.47480257443687 29.2337588976959
363 1001 1 6.29937273439012 5.71094375368931 30.2633790565387
364 1001 1 6.82257798726851 5.78244679203535 29.4739108874479
365 1001 1 -6.62324508399938 6.23484623648865 29.1544519174365
366 1001 1 -5.7157886303783 5.86614465164221 30.7374399702826
367 1001 1 -6.49433967293342 5.77262366143849 29.9497977624574
368 1001 1 -4.80648574082754 6.28541500950778 31.1148501691555
369 1001 1 4.00534310024181 6.76278351491568 31.1824046234036
370 1001 1 4.77751408602164 6.78022851421121 30.5860552488396
371 1001 1 5.40028460282169 6.97568810160364 29.7092304103872
372 1001 1 5.56270099250986 6.30249393376837 30.4161860774945
373 1001 1 -5.87947028396916 6.46254424766796 29.8649235645439
374 1001 1 -5.22190459755888 6.61267609529138 30.3855718523021
375 1001 1 -3.59979650318813 7.4220246947062 30.6528886995692
376 1001 1 -4.443423379867 7.06524519424277 30.5080343771657
377 1001 1 -2.71013225626701 7.70124391497657 30.7746133157768
378 1001 1 2.20935477040744 7.88089468565458 30.7454645732725
379 1001 1 3.1275983402079 7.9007794853815 30.2721874735132
380 1001 1 3.31282110596473 8.34843615829043 29.396474636845
381 1001 1 3.87331663584297 7.36306454506227 30.5482303155818
382 1001 1 4.6239791618511 7.3393884791732 29.9751750241491
383 1001 1 -3.29105607101179 8.03570682552331 29.9594850465643
384 1001 1 -2.34314043374133 8.28310549375108 30.0892033539681
385 1001 1 -1.40103317989698 8.45403090132665 30.1542800739881
386 1001 1 -0.444530658154953 8.54289812024959 30.1789402114429
387 1001 1 0.522432278773121 8.5552630870355 30.1511826562885
388 1001 1 1.52196578369861 8.45364129783218 30.1205179420394
389 1001 1 2.41912193442643 8.35859527396969 29.9276658734245
390 1001 1 -2.63103976299824 -8.47290938002389 29.6138443308842
391 1001 1 -3.1394360945725 -8.72374487296405 28.747048022154
392 1001 1 -2.23598917965142 -8.96895774590212 28.8155326795597
393 1001 1 -1.5940549538474 -8.7961425320038 29.481852224853
394 1001 1 -1.33272212068669 -9.22297217417275 28.6277790063817
395 1001 1 -0.695911841486921 -8.94188889789055 29.4224952111389
396 1001 1 -0.449386635227227 -9.33675131445103 28.5529252699152
397 1001 1 0.0565139142889772 -8.7015114954687 29.9275394821935
398 1001 1 1.05727115152944 -8.83747057162996 29.5586665683627
399 1001 1 0.87729676867987 -8.41788698279598 30.326320232106
400 1001 1 1.8287153870672 -8.41895604574576 30.0771179611367
401 1001 1 2.00656830985388 -8.82803152289464 29.2473138097023
402 1001 1 2.7614615904616 -8.34482002161038 29.7684815788853
403 1001 1 2.68916131842223 -8.88599801609721 28.7158558725735
404 1001 1 3.33256910692122 -8.501528184571 29.0765379968347
405 1001 1 -5.23650398144415 -7.43148277309548 29.1656025416265
406 1001 1 -5.81467645984451 -7.40796920605494 28.3632796990591
407 1001 1 -4.96600943979434 -7.92512734175101 28.5399505499398
408 1001 1 -4.39163955854785 -7.77943830713067 29.4937693088083
409 1001 1 -4.14095967251364 -8.3254812004591 28.6795334125181
410 1001 1 4.28181893939977 -7.42776769450922 30.1472752379261
411 1001 1 3.77886721305844 -8.01477556214387 29.6350493972948
412 1001 1 5.13239213123088 -7.15488869489782 29.7398588426185
413 1001 1 4.64793460558277 -7.77164799650349 29.2424445164277
414 1001 1 5.46512530721369 -7.4595960936575 28.8061757961303
415 1001 1 -6.4074110390645 -5.98740906175299 29.8058459696952
416 1001 1 -6.55445701558219 -6.37596529651102 29.0480019432511
417 1001 1 -6.44593091439061 -6.89886892271499 28.2948003472623
418 1001 1 6.06085011093842 -5.73961148967259 30.5066427538595
419 1001 1 5.94824964287753 -6.80835730336951 29.2737271748434
420 1001 1 6.40262510068971 -6.083710592873 29.6898839383672
421 1001 1 -7.16006543443812 -5.58010997374628 29.1947558894079
422 1001 1 -7.76529513582654 -5.26595911170777 28.4597664821328
423 1001 1 -7.12332262438681 -6.12689835348426 28.4233824390159
424 1001 1 6.7968182979436 -5.25966867186188 30.1126607405613
425 1001 1 7.117538174754 -5.57069173925346 29.2788071618504
426 1001 1 7.73748050616255 -5.03191830504336 28.8485504296967
427 1001 1 -7.55399948978067 -4.7929943249636 29.4681581785295
428 1001 1 -8.05890107967919 -4.49923347867998 28.8485267480382
429 1001 1 7.47273887959101 -4.68236861002119 29.7152663399717
430 1001 1 8.06431250645579 -4.11822583922052 29.2434914269373
431 1001 1 -8.47956810273909 -3.19394573909181 29.2303415661454
432 1001 1 -8.91009661803232 -2.9252557917619 28.4717747009126
433 1001 1 -8.50155302526136 -3.84379697163527 28.5984669849917
434 1001 1 8.44761091057948 -2.38121510615401 29.7924741951832
435 1001 1 8.28737942182202 -3.22201568599276 29.5758151953555
436 1001 1 8.82430973575888 -2.75619511572634 28.8124872966296
437 1001 1 -8.75125675994591 -2.24954474207764 29.2842966010448
438 1001 1 -9.14051089961956 -2.08374118102701 28.4798306873088
439 1001 1 8.62700437727145 -1.39502125514082 29.860951789727
440 1001 1 8.91972739363198 -1.90261477846882 29.1010568239824
441 1001 1 -8.95923793249413 -1.27644316716248 29.2547454543009
442 1001 1 -9.33294874996742 -1.25240972397488 28.3656638202447
443 1001 1 8.74292911442796 -0.412226029131114 29.8364660706898
444 1001 1 9.07567452975147 -0.891606479731222 29.1033295972544
445 1001 1 -8.98270172349319 -0.254317995008972 29.3870852662083
446 1001 1 8.78797003477705 0.535598136937256 29.7418201810471
447 1001 1 -8.91884209414154 0.715997894135562 29.4656177084841
448 1001 1 -9.3152449409005 0.453844854637952 28.6083750739469
449 1001 1 8.33802810308606 1.08814728476907 30.4123347603054
450 1001 1 9.116500183666 0.991549602073644 28.9882831320647
451 1001 1 -8.77281171238074 1.72207486783029 29.4802200962405
452 1001 1 -9.18231180154876 1.34245248192739 28.7260059480653
453 1001 1 8.68278828437282 1.55923705863485 29.7093640262362
454 1001 1 9.00936571666584 1.92614449776364 28.8886301354917
455 1001 1 -8.97304768881294 2.36370446456956 28.727930381273
456 1001 1 -9.33102851297523 1.92442300288701 28.0378713312848
457 1001 1 8.535735053489 2.52389529174809 29.5575571743604
458 1001 1 8.78268485741456 2.9047828982921 28.7982678675595
459 1001 1 -8.73656407260356 3.28419723459833 28.5897953239606
460 1001 1 -7.68538607132457 4.00092296108574 29.9927551271507
461 1001 1 -8.24306826166834 3.65398693336727 29.3243896989016
462 1001 1 7.67018635281596 4.21388522664461 29.83854482156
463 1001 1 8.08767193232914 4.39160794256776 28.9119663463036
464 1001 1 8.27000397398239 3.55788768844697 29.3529991444788
465 1001 1 -7.76180463782992 4.61055084328062 29.3008548857905
466 1001 1 -8.30066915243404 4.25871136143155 28.6003351610595
467 1001 1 7.5035557250151 5.04123359772687 29.2758335192943